
    -----------------------------------------------------------------------
          Psi4: An Open-Source Ab Initio Electronic Structure Package
                               Psi4 1.9.1 release

                         Git: Rev {} zzzzzzz 


    D. G. A. Smith, L. A. Burns, A. C. Simmonett, R. M. Parrish,
    M. C. Schieber, R. Galvelis, P. Kraus, H. Kruse, R. Di Remigio,
    A. Alenaizan, A. M. James, S. Lehtola, J. P. Misiewicz, M. Scheurer,
    R. A. Shaw, J. B. Schriber, Y. Xie, Z. L. Glick, D. A. Sirianni,
    J. S. O'Brien, J. M. Waldrop, A. Kumar, E. G. Hohenstein,
    B. P. Pritchard, B. R. Brooks, H. F. Schaefer III, A. Yu. Sokolov,
    K. Patkowski, A. E. DePrince III, U. Bozkaya, R. A. King,
    F. A. Evangelista, J. M. Turney, T. D. Crawford, C. D. Sherrill,
    J. Chem. Phys. 152(18) 184108 (2020). https://doi.org/10.1063/5.0006002

                            Additional Code Authors
    E. T. Seidl, C. L. Janssen, E. F. Valeev, M. L. Leininger,
    J. F. Gonthier, R. M. Richard, H. R. McAlexander, M. Saitow, X. Wang,
    P. Verma, M. H. Lechner, A. Jiang, S. Behnle, A. G. Heide,
    M. F. Herbst, and D. L. Poole

             Previous Authors, Complete List of Code Contributors,
                       and Citations for Specific Modules
    https://github.com/psi4/psi4/blob/master/codemeta.json
    https://github.com/psi4/psi4/graphs/contributors
    http://psicode.org/psi4manual/master/introduction.html#citing-psifour

    -----------------------------------------------------------------------


    Psi4 started on: Wednesday, 28 August 2024 06:56PM

    Process ID: 72590
    Host:       Azul
    PSIDATADIR: /home/gustavo/psi4conda/share/psi4
    Memory:     500.0 MiB
    Threads:    1
    
  ==> Input File <==

--------------------------------------------------------------------------
import psi4
import numpy as np

LiH = psi4.geometry("""
0 1
Li
H             1    R""")

psi4.set_options({
    "basis" : "aug-cc-pvtz"
})

Rvals = np.arange(0.5, 10.0, 0.1)

for R in Rvals:
    LiH.R = R
    properties('ccsd', properties=['dipole'])
--------------------------------------------------------------------------
Molecule: geometry: Molecule is not complete, please use 'update_geometry'
                    once all variables are set.
Molecule: Setting geometry variable R to 0.500000
   => Libint2 <=

    Primary   basis highest AM E, G, H:  5, 4, 3
    Auxiliary basis highest AM E, G, H:  6, 5, 4
    Onebody   basis highest AM E, G, H:  6, 5, 4
    Solid Harmonics ordering:            Gaussian

*** tstart() called on Azul
*** at Wed Aug 28 18:56:52 2024

   => Loading Basis Set <=

    Name: AUG-CC-PVTZ
    Role: ORBITAL
    Keyword: BASIS
    atoms 1 entry LI         line    85 file /home/gustavo/psi4conda/share/psi4/basis/aug-cc-pvtz.gbs 
    atoms 2 entry H          line    40 file /home/gustavo/psi4conda/share/psi4/basis/aug-cc-pvtz.gbs 


         ---------------------------------------------------------
                                   SCF
               by Justin Turney, Rob Parrish, Andy Simmonett
                          and Daniel G. A. Smith
                              RHF Reference
                        1 Threads,    500 MiB Core
         ---------------------------------------------------------

  ==> Geometry <==

    Molecular point group: c2v
    Full point group: C_inf_v

    Geometry (in Angstrom), charge = 0, multiplicity = 1:

       Center              X                  Y                   Z               Mass       
    ------------   -----------------  -----------------  -----------------  -----------------
         LI           0.000000000000     0.000000000000    -0.062802005062     7.016003436600
         H            0.000000000000     0.000000000000     0.437197994938     1.007825032230

  Running in c2v symmetry.

  Rotational constants: A = ************  B =     76.51793  C =     76.51793 [cm^-1]
  Rotational constants: A = ************  B = 2293949.70829  C = 2293949.70829 [MHz]
  Nuclear repulsion =    3.175063264020000

  Charge       = 0
  Multiplicity = 1
  Electrons    = 4
  Nalpha       = 2
  Nbeta        = 2

  ==> Algorithm <==

  SCF Algorithm Type is PK.
  DIIS enabled.
  MOM disabled.
  Fractional occupation disabled.
  Guess Type is SAD.
  Energy threshold   = 1.00e-10
  Density threshold  = 1.00e-10
  Integral threshold = 1.00e-12

  ==> Primary Basis <==

  Basis Set: AUG-CC-PVTZ
    Blend: AUG-CC-PVTZ
    Number of shells: 23
    Number of basis functions: 69
    Number of Cartesian functions: 80
    Spherical Harmonics?: true
    Max angular momentum: 3

  ==> Integral Setup <==

  Using in-core PK algorithm.
   Calculation information:
      Number of atoms:                   2
      Number of AO shells:              23
      Number of primitives:             49
      Number of atomic orbitals:        80
      Number of basis functions:        69

      Integral cutoff                 1.00e-12
      Number of threads:                 1

  Performing in-core PK
  Using 5834640 doubles for integral storage.
  We computed 38226 shell quartets total.
  Whereas there are 38226 unique shell quartets.

  ==> DiskJK: Disk-Based J/K Matrices <==

    J tasked:                  Yes
    K tasked:                  Yes
    wK tasked:                  No
    Memory [MiB]:              375
    Schwarz Cutoff:          1E-12

    OpenMP threads:              1

  Minimum eigenvalue in the overlap matrix is 4.1492242335E-05.
  Reciprocal condition number of the overlap matrix is 7.6094332335E-06.
    Using symmetric orthogonalization.

  ==> Pre-Iterations <==

  SCF Guess: Superposition of Atomic Densities via on-the-fly atomic UHF (no occupation information).

   -------------------------
    Irrep   Nso     Nmo    
   -------------------------
     A1        30      30 
     A2         7       7 
     B1        16      16 
     B2        16      16 
   -------------------------
    Total      69      69
   -------------------------

  ==> Iterations <==

                        Total Energy        Delta E     RMS |[F,P]|

   @RHF iter SAD:    -7.54132351461569   -7.54132e+00   0.00000e+00 
   @RHF iter   1:    -7.18703666139063    3.54287e-01   3.02758e-03 ADIIS/DIIS
   @RHF iter   2:    -7.19552338529849   -8.48672e-03   4.57493e-04 ADIIS/DIIS
   @RHF iter   3:    -7.19585089845964   -3.27513e-04   1.18786e-04 ADIIS/DIIS
   @RHF iter   4:    -7.19590614679553   -5.52483e-05   4.68246e-05 DIIS
   @RHF iter   5:    -7.19592773719583   -2.15904e-05   2.46651e-05 DIIS
   @RHF iter   6:    -7.19593604744581   -8.31025e-06   4.49309e-06 DIIS
   @RHF iter   7:    -7.19593630153017   -2.54084e-07   8.20563e-07 DIIS
   @RHF iter   8:    -7.19593630912232   -7.59215e-09   6.60145e-08 DIIS
   @RHF iter   9:    -7.19593630914796   -2.56462e-11   8.35614e-09 DIIS
   @RHF iter  10:    -7.19593630914848   -5.11591e-13   1.22719e-09 DIIS
   @RHF iter  11:    -7.19593630914849   -1.77636e-14   1.30964e-10 DIIS
   @RHF iter  12:    -7.19593630914849    3.55271e-15   2.67367e-11 DIIS
  Energy and wave function converged.


  ==> Post-Iterations <==

    Orbital Energies [Eh]
    ---------------------

    Doubly Occupied:                                                      

       1A1    -2.851037     2A1    -0.269380  

    Virtual:                                                              

       3A1    -0.009037     1B2     0.016160     1B1     0.016160  
       4A1     0.018262     5A1     0.025504     2B1     0.049345  
       2B2     0.049345     6A1     0.075624     7A1     0.091096  
       1A2     0.113873     8A1     0.113873     3B2     0.117673  
       3B1     0.117673     9A1     0.118463     4B2     0.131762  
       4B1     0.131762    10A1     0.211567    11A1     0.272132  
      12A1     0.292669     5B2     0.292865     5B1     0.292865  
       2A2     0.293544    13A1     0.293544     6B1     0.299872  
       6B2     0.299872     3A2     0.324666    14A1     0.324666  
      15A1     0.326561     7B2     0.328794     7B1     0.328794  
       8B1     0.338577     8B2     0.338577    16A1     0.524133  
      17A1     0.668424     4A2     0.721575    18A1     0.721575  
       9B2     0.723929     9B1     0.723929    19A1     0.732509  
      20A1     0.759412    10B1     0.759949    10B2     0.759949  
      11B2     0.770019    11B1     0.770019     5A2     0.784559  
      21A1     0.784559    12B1     0.829580    12B2     0.829580  
      22A1     1.369632     6A2     1.453511    23A1     1.453511  
      13B2     1.489053    13B1     1.489053    24A1     1.520368  
      25A1     2.299576    14B1     2.369889    14B2     2.369889  
      26A1     2.805192    15B2     3.414238    15B1     3.414238  
       7A2     3.946439    27A1     3.946439    28A1     4.463314  
      16B1     4.505344    16B2     4.505344    29A1     4.828643  
      30A1     7.401881  

    Final Occupation by Irrep:
             A1    A2    B1    B2 
    DOCC [     2,    0,    0,    0 ]
    NA   [     2,    0,    0,    0 ]
    NB   [     2,    0,    0,    0 ]

  @RHF Final Energy:    -7.19593630914849

   => Energetics <=

    Nuclear Repulsion Energy =              3.1750632640200003
    One-Electron Energy =                 -14.5011646599085910
    Two-Electron Energy =                   4.1301650867401012
    Total Energy =                         -7.1959363091484896

Computation Completed


Properties will be evaluated at   0.000000,   0.000000,   0.000000 [a0]

Properties computed using the SCF density matrix


 Multipole Moments:

 ------------------------------------------------------------------------------------
     Multipole            Electronic (a.u.)      Nuclear  (a.u.)        Total (a.u.)
 ------------------------------------------------------------------------------------

 L = 1.  Multiply by 2.5417464519 to convert [e a0] to [Debye]
 Dipole X            :          0.0000000            0.0000000            0.0000000
 Dipole Y            :          0.0000000            0.0000000            0.0000000
 Dipole Z            :         -2.5062314            0.4701487           -2.0360827
 Magnitude           :                                                    2.0360827

 ------------------------------------------------------------------------------------

*** tstop() called on Azul at Wed Aug 28 18:56:53 2024
Module time:
	user time   =       1.12 seconds =       0.02 minutes
	system time =       0.16 seconds =       0.00 minutes
	total time  =          1 seconds =       0.02 minutes
Total time:
	user time   =       1.12 seconds =       0.02 minutes
	system time =       0.16 seconds =       0.00 minutes
	total time  =          1 seconds =       0.02 minutes
 MINTS: Wrapper to libmints.
   by Justin Turney

   Calculation information:
      Number of threads:                 1
      Number of atoms:                   2
      Number of AO shells:              23
      Number of SO shells:              23
      Number of primitives:             49
      Number of atomic orbitals:        80
      Number of basis functions:        69

      Number of irreps:                  4
      Integral cutoff                 1.00e-12
      Number of functions per irrep: [  30    7   16   16 ]

 OEINTS: Overlap, kinetic, potential, dipole, and quadrupole integrals
         stored in file 35.

      Computing two-electron integrals...done
      Computed 564134 non-zero two-electron integrals.
        Stored in file 33.


*** tstart() called on Azul
*** at Wed Aug 28 18:56:53 2024


	Wfn Parameters:
	--------------------
	Wavefunction         = CCSD
	Number of irreps     = 4
	Number of MOs        = 69
	Number of active MOs = 69
	AO-Basis             = NONE
	Semicanonical        = false
	Reference            = RHF
	Print Level          = 1

	IRREP	# MOs	# FZDC	# DOCC	# SOCC	# VIRT	# FZVR
	-----	-----	------	------	------	------	------
	 A1	   30	    0	    2	    0	    28	    0
	 A2	   7	    0	    0	    0	    7	    0
	 B1	   16	    0	    0	    0	    16	    0
	 B2	   16	    0	    0	    0	    16	    0
	Transforming integrals...
	IWL integrals will be deleted.
	(OO|OO)...
	Presorting SO-basis two-electron integrals.
	Sorting File: SO Ints (nn|nn) nbuckets = 1
	Constructing frozen core operators
	Starting first half-transformation.
	Sorting half-transformed integrals.
	First half integral transformation complete.
	Starting second half-transformation.
	Two-electron integral transformation complete.
	(OO|OV)...
	Starting second half-transformation.
	Two-electron integral transformation complete.
	(OO|VV)...
	Starting second half-transformation.
	Two-electron integral transformation complete.
	(OV|OO)...
	Starting first half-transformation.
	Sorting half-transformed integrals.
	First half integral transformation complete.
	Starting second half-transformation.
	Two-electron integral transformation complete.
	(OV|OV)...
	Starting second half-transformation.
	Two-electron integral transformation complete.
	(OV|VV)...
	Starting second half-transformation.
	Two-electron integral transformation complete.
	(VV|OO)...
	Starting first half-transformation.
	Sorting half-transformed integrals.
	First half integral transformation complete.
	Starting second half-transformation.
	Two-electron integral transformation complete.
	(VV|OV)...
	Starting second half-transformation.
	Two-electron integral transformation complete.
	(VV|VV)...
	Starting second half-transformation.
	Two-electron integral transformation complete.
	Frozen core energy     =      0.00000000000000

	Size of irrep 0 of <ab|cd> integrals:      1.809 (MW) /     14.472 (MB)
	Size of irrep 1 of <ab|cd> integrals:      0.817 (MW) /      6.538 (MB)
	Size of irrep 2 of <ab|cd> integrals:      1.254 (MW) /     10.035 (MB)
	Size of irrep 3 of <ab|cd> integrals:      1.254 (MW) /     10.035 (MB)
	Total:                                     5.135 (MW) /     41.080 (MB)

	Size of irrep 0 of <ia|bc> integrals:      0.075 (MW) /      0.603 (MB)
	Size of irrep 1 of <ia|bc> integrals:      0.013 (MW) /      0.101 (MB)
	Size of irrep 2 of <ia|bc> integrals:      0.036 (MW) /      0.287 (MB)
	Size of irrep 3 of <ia|bc> integrals:      0.036 (MW) /      0.287 (MB)
	Total:                                     0.160 (MW) /      1.277 (MB)

	Size of irrep 0 of tijab amplitudes:       0.005 (MW) /      0.043 (MB)
	Size of irrep 1 of tijab amplitudes:       0.000 (MW) /      0.000 (MB)
	Size of irrep 2 of tijab amplitudes:       0.000 (MW) /      0.000 (MB)
	Size of irrep 3 of tijab amplitudes:       0.000 (MW) /      0.000 (MB)
	Total:                                     0.005 (MW) /      0.043 (MB)

	Nuclear Rep. energy          =      3.17506326402000
	SCF energy                   =     -7.19593630914849
	One-electron energy          =    -14.50116466116425
	Two-electron energy          =      4.13016508799575
	Reference energy             =     -7.19593630914849

*** tstop() called on Azul at Wed Aug 28 18:56:54 2024
Module time:
	user time   =       0.32 seconds =       0.01 minutes
	system time =       0.24 seconds =       0.00 minutes
	total time  =          1 seconds =       0.02 minutes
Total time:
	user time   =       1.79 seconds =       0.03 minutes
	system time =       0.44 seconds =       0.01 minutes
	total time  =          2 seconds =       0.03 minutes
            **************************
            *                        *
            *        CCENERGY        *
            *                        *
            **************************

    Nuclear Rep. energy (wfn)     =    3.175063264020000
    SCF energy          (wfn)     =   -7.195936309148490
    Reference energy    (file100) =   -7.195936309148493

    Input parameters:
    -----------------
    Wave function   =     CCSD
    Reference wfn   =     RHF
    Brueckner       =     No
    Memory (Mbytes) =     524.3
    Maxiter         =     50
    R_Convergence   =     1.0e-07
    E_Convergence   =     1.0e-08
    Restart         =     Yes
    DIIS            =     Yes
    AO Basis        =     NONE
    ABCD            =     NEW
    Cache Level     =     2
    Cache Type      =     LOW
    Print Level     =     1
    Num. of threads =     1
    # Amps to Print =     10
    Print MP2 Amps? =     No
    Analyze T2 Amps =     No
    Print Pair Ener =     No
    Local CC        =     No
    SCS-MP2         =     False
    SCSN-MP2        =     False
    SCS-CCSD        =     False

MP2 correlation energy -0.0555390580905887
                Solving CC Amplitude Equations
                ------------------------------
  Iter             Energy              RMS        T1Diag      D1Diag    New D1Diag    D2Diag
  ----     ---------------------    ---------   ----------  ----------  ----------   --------
     0        -0.055539058090589    0.000e+00    0.000000    0.000000    0.000000    0.144428
     1        -0.064766314783673    5.009e-02    0.004081    0.007878    0.007878    0.187620
     2        -0.070298146535588    2.509e-02    0.006093    0.011749    0.011749    0.226556
     3        -0.070410297627760    7.294e-03    0.007025    0.013725    0.013725    0.232443
     4        -0.070464670071866    5.053e-03    0.008870    0.017490    0.017490    0.235839
     5        -0.070586211296413    3.679e-03    0.013762    0.027345    0.027345    0.239408
     6        -0.070598370954326    1.693e-03    0.016545    0.032930    0.032930    0.240591
     7        -0.070606050026171    6.036e-04    0.017199    0.034245    0.034245    0.240981
     8        -0.070614416862688    2.004e-04    0.017363    0.034573    0.034573    0.241142
     9        -0.070613101722788    6.871e-05    0.017360    0.034569    0.034569    0.241130
    10        -0.070613254460053    2.551e-05    0.017360    0.034567    0.034567    0.241125
    11        -0.070613365369361    7.245e-06    0.017362    0.034572    0.034572    0.241127
    12        -0.070613387699853    2.824e-06    0.017361    0.034570    0.034570    0.241126
    13        -0.070613470339347    1.107e-06    0.017361    0.034570    0.034570    0.241127
    14        -0.070613486105039    3.249e-07    0.017361    0.034570    0.034570    0.241127
    15        -0.070613489392471    1.565e-07    0.017361    0.034570    0.034570    0.241127
    16        -0.070613487661258    7.840e-08    0.017361    0.034570    0.034570    0.241127

    Iterations converged.


    Largest TIA Amplitudes:
              1   0        -0.0247882776
              1   1         0.0146340319
              1   3        -0.0128900925
              1   7         0.0073872524
              1  14        -0.0060258029
              1  13        -0.0048868241
              1  12         0.0044784343
              1  16        -0.0044584795
              1  23        -0.0035830555
              1   8         0.0033968666

    Largest TIjAb Amplitudes:
      1   1   8   8        -0.0499290270
      1   1   0   0        -0.0411284516
      1   1   0   8        -0.0406097952
      1   1   8   0        -0.0406097952
      1   1  38  38        -0.0370695098
      1   1  54  54        -0.0370695098
      1   1   4   8         0.0334899769
      1   1   8   4         0.0334899769
      1   1   8  14         0.0305462886
      1   1  14   8         0.0305462886

    SCF energy       (wfn)                    =   -7.195936309148490
    Reference energy (file100)                =   -7.195936309148493

    Opposite-spin MP2 correlation energy      =   -0.052655962915790
    Same-spin MP2 correlation energy          =   -0.002883095174799
    Singles MP2 correlation energy            =   -0.000000000000000
    MP2 correlation energy                    =   -0.055539058090589
      * MP2 total energy                      =   -7.251475367239082

    Opposite-spin CCSD correlation energy     =   -0.067574190623156
    Same-spin CCSD correlation energy         =   -0.003039297038103
    Singles CCSD correlation energy           =    0.000000000000000
    CCSD correlation energy                   =   -0.070613487661258
      * CCSD total energy                     =   -7.266549796809751


			**************************
			*                        *
			*         CCHBAR         *
			*                        *
			**************************


			**************************
			*        CCLAMBDA        *
			**************************


	Nuclear Rep. energy (wfn)     =    3.175063264020000
	Reference           (wfn)     =                    0
	SCF energy          (wfn)     =   -7.195936309148490
	Reference energy    (CC_INFO) =   -7.195936309148493
	CCSD energy         (CC_INFO) =   -0.070613487661258
	Total CCSD energy   (CC_INFO) =   -7.266549796809751

	Input parameters:
	-----------------
	Maxiter           =     50
	Convergence       = 1.0e-07
	Restart           =     No
	Cache Level       =     2
	Model III         =     No
	DIIS              =     Yes
	AO Basis          =     No
	ABCD              =     NEW
	Local CC          =     No
	Parameters for left-handed eigenvectors:
	    Irr   Root  Ground-State?    EOM energy        R0
	  1   0     0        Yes       0.0000000000   1.0000000000
	Labels for eigenvector 1:
	LIA 0 -1, Lia 0 -1, LIJAB 0 -1, Lijab 0 -1, LIjAb 0 -1, 2LIjAb - LIjbA 0 -1
	Deleting old CC_LAMBDA data.
	Symmetry of left-hand state: A1
	Symmetry of left-hand eigenvector: A1

	          Solving Lambda Equations
	          ------------------------
	Iter     PseudoEnergy or Norm         RMS  
	----     ---------------------     --------
	   0        -0.070631674222846    0.000e+00
	   1        -0.068296159206755    8.387e-03
	   2        -0.067759205773271    2.908e-03
	   3        -0.067582572446570    1.199e-03
	   4        -0.067565230010262    6.139e-04
	   5        -0.067565542307368    4.589e-04
	   6        -0.067565905472520    3.277e-04
	   7        -0.067564789090231    1.326e-04
	   8        -0.067564733294702    3.449e-05
	   9        -0.067564765016420    1.198e-05
	  10        -0.067564784364750    4.066e-06
	  11        -0.067564782815796    1.066e-06
	  12        -0.067564786039565    3.320e-07
	  13        -0.067564786840143    1.164e-07
	  14        -0.067564787648889    4.346e-08

	Largest LIA Amplitudes:
	          1   0        -0.0225093780
	          1   1         0.0132076735
	          1   3        -0.0114415413
	          1   7         0.0064786636
	          1  14        -0.0058241700
	          1  13        -0.0043639583
	          1  16        -0.0040092598
	          1   8         0.0037510205
	          1  12         0.0037368829
	          1  23        -0.0033433874

	Largest LIjAb Amplitudes:
	  1   1   8   8        -0.0470655602
	  1   1   0   8        -0.0383650221
	  1   1   8   0        -0.0383650221
	  1   1   0   0        -0.0382095030
	  1   1  38  38        -0.0349408750
	  1   1  54  54        -0.0349408750
	  1   1   4   8         0.0316167158
	  1   1   8   4         0.0316167158
	  1   1   8  14         0.0287451454
	  1   1  14   8         0.0287451454

	Iterations converged.

	Overlap <L|e^T> =        0.94018157434

			**************************
			*                        *
			*        CCDENSITY       *
			*                        *
			**************************


	Input parameters:
	-----------------
	Wave function    =   CCSD
	Reference wfn    =   RHF
	Dertype          = 0
	Tolerance        = 1.0e-14
	Cache Level      = 2
	AO Basis         = No
	OPDM Only        = Yes
	Relax OPDM       = No
	Compute Xi       = No
	Use Zeta         = No
	Xi connected     = Yes
	Compute NO       = No

	Nuclear Rep. energy (wfn)     =    3.175063264020000
	SCF energy          (wfn)     =   -7.195936309148490
	Reference energy    (file100) =   -7.195936309148493
	CCSD energy         (CC_INFO) =   -0.070613487661258
	Total CCSD energy   (CC_INFO) =   -7.266549796809751
	Number of States = 1

	Ground?  State     EOM Energy       R0
	  Yes     0 A1    0.0000000000   1.00000000


Properties will be evaluated at   0.000000,   0.000000,   0.000000 [a0]

Properties computed using the CCSD density matrix


 Multipole Moments:

 ------------------------------------------------------------------------------------
     Multipole            Electronic (a.u.)      Nuclear  (a.u.)        Total (a.u.)
 ------------------------------------------------------------------------------------

 L = 1.  Multiply by 2.5417464519 to convert [e a0] to [Debye]
 Dipole X            :          0.0000000            0.0000000            0.0000000
 Dipole Y            :          0.0000000            0.0000000            0.0000000
 Dipole Z            :         -2.3642359            0.4701487           -1.8940872
 Magnitude           :                                                    1.8940872

 L = 2.  Multiply by 1.3450342976 to convert [e a0^2] to [Debye ang]
 Quadrupole XX       :         -5.0816603            0.0000000           -5.0816603
 Quadrupole XY       :          0.0000000            0.0000000            0.0000000
 Quadrupole XZ       :          0.0000000            0.0000000            0.0000000
 Quadrupole YY       :         -5.0816603            0.0000000           -5.0816603
 Quadrupole YZ       :          0.0000000            0.0000000            0.0000000
 Quadrupole ZZ       :         -6.7738876            0.7248346           -6.0490530
 Traceless XX        :          0.5640758           -0.2416115            0.3224642
 Traceless YY        :          0.5640758           -0.2416115            0.3224642
 Traceless ZZ        :         -1.1281515            0.4832231           -0.6449285

 ------------------------------------------------------------------------------------
  Mulliken Charges: (a.u.)
   Center  Symbol    Alpha    Beta     Spin     Total
       1    LI     1.87099  1.87099  0.00000 -0.74199
       2     H     0.12901  0.12901  0.00000  0.74199

   Total alpha =  2.00000, Total beta =  2.00000, Total charge = -0.00000

  Natural Orbital Occupations:

  Total Occupations:
  HONO-1 :    1 A1    1.995
  HONO-0 :    2 A1    1.890
  LUNO+0 :    3 A1    0.054
  LUNO+1 :    1 B2    0.026
  LUNO+2 :    1 B1    0.026
  LUNO+3 :    4 A1    0.004

Molecule: Setting geometry variable R to 0.600000
   => Libint2 <=

    Primary   basis highest AM E, G, H:  5, 4, 3
    Auxiliary basis highest AM E, G, H:  6, 5, 4
    Onebody   basis highest AM E, G, H:  6, 5, 4
    Solid Harmonics ordering:            Gaussian

*** tstart() called on Azul
*** at Wed Aug 28 18:56:55 2024

   => Loading Basis Set <=

    Name: AUG-CC-PVTZ
    Role: ORBITAL
    Keyword: BASIS
    atoms 1 entry LI         line    85 file /home/gustavo/psi4conda/share/psi4/basis/aug-cc-pvtz.gbs 
    atoms 2 entry H          line    40 file /home/gustavo/psi4conda/share/psi4/basis/aug-cc-pvtz.gbs 


         ---------------------------------------------------------
                                   SCF
               by Justin Turney, Rob Parrish, Andy Simmonett
                          and Daniel G. A. Smith
                              RHF Reference
                        1 Threads,    500 MiB Core
         ---------------------------------------------------------

  ==> Geometry <==

    Molecular point group: c2v
    Full point group: C_inf_v

    Geometry (in Angstrom), charge = 0, multiplicity = 1:

       Center              X                  Y                   Z               Mass       
    ------------   -----------------  -----------------  -----------------  -----------------
         LI           0.000000000000     0.000000000000    -0.075362406074     7.016003436600
         H            0.000000000000     0.000000000000     0.524637593926     1.007825032230

  Running in c2v symmetry.

  Rotational constants: A = ************  B =     53.13745  C =     53.13745 [cm^-1]
  Rotational constants: A = ************  B = 1593020.63076  C = 1593020.63076 [MHz]
  Nuclear repulsion =    2.645886053350000

  Charge       = 0
  Multiplicity = 1
  Electrons    = 4
  Nalpha       = 2
  Nbeta        = 2

  ==> Algorithm <==

  SCF Algorithm Type is PK.
  DIIS enabled.
  MOM disabled.
  Fractional occupation disabled.
  Guess Type is SAD.
  Energy threshold   = 1.00e-10
  Density threshold  = 1.00e-10
  Integral threshold = 1.00e-12

  ==> Primary Basis <==

  Basis Set: AUG-CC-PVTZ
    Blend: AUG-CC-PVTZ
    Number of shells: 23
    Number of basis functions: 69
    Number of Cartesian functions: 80
    Spherical Harmonics?: true
    Max angular momentum: 3

  ==> Integral Setup <==

  Using in-core PK algorithm.
   Calculation information:
      Number of atoms:                   2
      Number of AO shells:              23
      Number of primitives:             49
      Number of atomic orbitals:        80
      Number of basis functions:        69

      Integral cutoff                 1.00e-12
      Number of threads:                 1

  Performing in-core PK
  Using 5834640 doubles for integral storage.
  We computed 38226 shell quartets total.
  Whereas there are 38226 unique shell quartets.

  ==> DiskJK: Disk-Based J/K Matrices <==

    J tasked:                  Yes
    K tasked:                  Yes
    wK tasked:                  No
    Memory [MiB]:              375
    Schwarz Cutoff:          1E-12

    OpenMP threads:              1

  Minimum eigenvalue in the overlap matrix is 5.3006676675E-05.
  Reciprocal condition number of the overlap matrix is 9.7231166885E-06.
    Using symmetric orthogonalization.

  ==> Pre-Iterations <==

  SCF Guess: Superposition of Atomic Densities via on-the-fly atomic UHF (no occupation information).

   -------------------------
    Irrep   Nso     Nmo    
   -------------------------
     A1        30      30 
     A2         7       7 
     B1        16      16 
     B2        16      16 
   -------------------------
    Total      69      69
   -------------------------

  ==> Iterations <==

                        Total Energy        Delta E     RMS |[F,P]|

   @RHF iter SAD:    -7.64557580162630   -7.64558e+00   0.00000e+00 
   @RHF iter   1:    -7.43822404374733    2.07352e-01   3.41984e-03 ADIIS/DIIS
   @RHF iter   2:    -7.44900413876735   -1.07801e-02   4.46616e-04 ADIIS/DIIS
   @RHF iter   3:    -7.44938227733250   -3.78139e-04   1.43418e-04 ADIIS/DIIS
   @RHF iter   4:    -7.44948039031410   -9.81130e-05   6.13730e-05 DIIS
   @RHF iter   5:    -7.44951691764601   -3.65273e-05   2.44856e-05 DIIS
   @RHF iter   6:    -7.44952352506128   -6.60742e-06   3.09301e-06 DIIS
   @RHF iter   7:    -7.44952360677151   -8.17102e-08   4.45948e-07 DIIS
   @RHF iter   8:    -7.44952360801549   -1.24398e-09   4.10123e-08 DIIS
   @RHF iter   9:    -7.44952360802209   -6.59828e-12   3.99368e-09 DIIS
   @RHF iter  10:    -7.44952360802216   -7.01661e-14   7.14180e-10 DIIS
   @RHF iter  11:    -7.44952360802216   -5.32907e-15   8.91371e-11 DIIS
  Energy and wave function converged.


  ==> Post-Iterations <==

    Orbital Energies [Eh]
    ---------------------

    Doubly Occupied:                                                      

       1A1    -2.660458     2A1    -0.284848  

    Virtual:                                                              

       3A1    -0.005372     1B2     0.016691     1B1     0.016691  
       4A1     0.021535     5A1     0.025253     2B2     0.053018  
       2B1     0.053018     6A1     0.079950     7A1     0.092188  
       8A1     0.114662     1A2     0.114662     3B2     0.118304  
       3B1     0.118304     9A1     0.118535     4B1     0.141076  
       4B2     0.141076    10A1     0.219453    11A1     0.272976  
       2A2     0.294545    12A1     0.294545     5B2     0.294870  
       5B1     0.294870    13A1     0.296035     6B1     0.300015  
       6B2     0.300015    14A1     0.327449    15A1     0.330148  
       3A2     0.330148     7B2     0.331662     7B1     0.331662  
       8B2     0.354799     8B1     0.354799    16A1     0.539950  
      17A1     0.680400    18A1     0.724641     4A2     0.724641  
       9B2     0.728297     9B1     0.728297    19A1     0.737257  
      10B1     0.764890    10B2     0.764890    20A1     0.766412  
      11B2     0.780464    11B1     0.780464     5A2     0.806119  
      21A1     0.806119    12B2     0.868523    12B1     0.868523  
      22A1     1.347028    23A1     1.424953     6A2     1.424953  
      13B2     1.471803    13B1     1.471803    24A1     1.561542  
      25A1     2.236867    14B2     2.326386    14B1     2.326386  
      26A1     2.837250    15B1     3.616592    15B2     3.616592  
      27A1     4.019757     7A2     4.019757    28A1     4.448057  
      16B2     4.630913    16B1     4.630913    29A1     5.059277  
      30A1     6.515929  

    Final Occupation by Irrep:
             A1    A2    B1    B2 
    DOCC [     2,    0,    0,    0 ]
    NA   [     2,    0,    0,    0 ]
    NB   [     2,    0,    0,    0 ]

  @RHF Final Energy:    -7.44952360802216

   => Energetics <=

    Nuclear Repulsion Energy =              2.6458860533500004
    One-Electron Energy =                 -14.3002069567085481
    Two-Electron Energy =                   4.2047972953363839
    Total Energy =                         -7.4495236080221634

Computation Completed


Properties will be evaluated at   0.000000,   0.000000,   0.000000 [a0]

Properties computed using the SCF density matrix


 Multipole Moments:

 ------------------------------------------------------------------------------------
     Multipole            Electronic (a.u.)      Nuclear  (a.u.)        Total (a.u.)
 ------------------------------------------------------------------------------------

 L = 1.  Multiply by 2.5417464519 to convert [e a0] to [Debye]
 Dipole X            :          0.0000000            0.0000000            0.0000000
 Dipole Y            :          0.0000000            0.0000000            0.0000000
 Dipole Z            :         -2.5578702            0.5641784           -1.9936918
 Magnitude           :                                                    1.9936918

 ------------------------------------------------------------------------------------

*** tstop() called on Azul at Wed Aug 28 18:56:56 2024
Module time:
	user time   =       1.02 seconds =       0.02 minutes
	system time =       0.13 seconds =       0.00 minutes
	total time  =          1 seconds =       0.02 minutes
Total time:
	user time   =       3.26 seconds =       0.05 minutes
	system time =       1.16 seconds =       0.02 minutes
	total time  =          4 seconds =       0.07 minutes
 MINTS: Wrapper to libmints.
   by Justin Turney

   Calculation information:
      Number of threads:                 1
      Number of atoms:                   2
      Number of AO shells:              23
      Number of SO shells:              23
      Number of primitives:             49
      Number of atomic orbitals:        80
      Number of basis functions:        69

      Number of irreps:                  4
      Integral cutoff                 1.00e-12
      Number of functions per irrep: [  30    7   16   16 ]

 OEINTS: Overlap, kinetic, potential, dipole, and quadrupole integrals
         stored in file 35.

      Computing two-electron integrals...done
      Computed 564134 non-zero two-electron integrals.
        Stored in file 33.


*** tstart() called on Azul
*** at Wed Aug 28 18:56:56 2024


	Wfn Parameters:
	--------------------
	Wavefunction         = CCSD
	Number of irreps     = 4
	Number of MOs        = 69
	Number of active MOs = 69
	AO-Basis             = NONE
	Semicanonical        = false
	Reference            = RHF
	Print Level          = 1

	IRREP	# MOs	# FZDC	# DOCC	# SOCC	# VIRT	# FZVR
	-----	-----	------	------	------	------	------
	 A1	   30	    0	    2	    0	    28	    0
	 A2	   7	    0	    0	    0	    7	    0
	 B1	   16	    0	    0	    0	    16	    0
	 B2	   16	    0	    0	    0	    16	    0
	Transforming integrals...
	IWL integrals will be deleted.
	(OO|OO)...
	Presorting SO-basis two-electron integrals.
	Sorting File: SO Ints (nn|nn) nbuckets = 1
	Constructing frozen core operators
	Starting first half-transformation.
	Sorting half-transformed integrals.
	First half integral transformation complete.
	Starting second half-transformation.
	Two-electron integral transformation complete.
	(OO|OV)...
	Starting second half-transformation.
	Two-electron integral transformation complete.
	(OO|VV)...
	Starting second half-transformation.
	Two-electron integral transformation complete.
	(OV|OO)...
	Starting first half-transformation.
	Sorting half-transformed integrals.
	First half integral transformation complete.
	Starting second half-transformation.
	Two-electron integral transformation complete.
	(OV|OV)...
	Starting second half-transformation.
	Two-electron integral transformation complete.
	(OV|VV)...
	Starting second half-transformation.
	Two-electron integral transformation complete.
	(VV|OO)...
	Starting first half-transformation.
	Sorting half-transformed integrals.
	First half integral transformation complete.
	Starting second half-transformation.
	Two-electron integral transformation complete.
	(VV|OV)...
	Starting second half-transformation.
	Two-electron integral transformation complete.
	(VV|VV)...
	Starting second half-transformation.
	Two-electron integral transformation complete.
	Frozen core energy     =      0.00000000000000

	Size of irrep 0 of <ab|cd> integrals:      1.809 (MW) /     14.472 (MB)
	Size of irrep 1 of <ab|cd> integrals:      0.817 (MW) /      6.538 (MB)
	Size of irrep 2 of <ab|cd> integrals:      1.254 (MW) /     10.035 (MB)
	Size of irrep 3 of <ab|cd> integrals:      1.254 (MW) /     10.035 (MB)
	Total:                                     5.135 (MW) /     41.080 (MB)

	Size of irrep 0 of <ia|bc> integrals:      0.075 (MW) /      0.603 (MB)
	Size of irrep 1 of <ia|bc> integrals:      0.013 (MW) /      0.101 (MB)
	Size of irrep 2 of <ia|bc> integrals:      0.036 (MW) /      0.287 (MB)
	Size of irrep 3 of <ia|bc> integrals:      0.036 (MW) /      0.287 (MB)
	Total:                                     0.160 (MW) /      1.277 (MB)

	Size of irrep 0 of tijab amplitudes:       0.005 (MW) /      0.043 (MB)
	Size of irrep 1 of tijab amplitudes:       0.000 (MW) /      0.000 (MB)
	Size of irrep 2 of tijab amplitudes:       0.000 (MW) /      0.000 (MB)
	Size of irrep 3 of tijab amplitudes:       0.000 (MW) /      0.000 (MB)
	Total:                                     0.005 (MW) /      0.043 (MB)

	Nuclear Rep. energy          =      2.64588605335000
	SCF energy                   =     -7.44952360802216
	One-electron energy          =    -14.30020695883746
	Two-electron energy          =      4.20479729746529
	Reference energy             =     -7.44952360802217

*** tstop() called on Azul at Wed Aug 28 18:56:57 2024
Module time:
	user time   =       0.34 seconds =       0.01 minutes
	system time =       0.21 seconds =       0.00 minutes
	total time  =          1 seconds =       0.02 minutes
Total time:
	user time   =       3.94 seconds =       0.07 minutes
	system time =       1.38 seconds =       0.02 minutes
	total time  =          5 seconds =       0.08 minutes
            **************************
            *                        *
            *        CCENERGY        *
            *                        *
            **************************

    Nuclear Rep. energy (wfn)     =    2.645886053350000
    SCF energy          (wfn)     =   -7.449523608022163
    Reference energy    (file100) =   -7.449523608022172

    Input parameters:
    -----------------
    Wave function   =     CCSD
    Reference wfn   =     RHF
    Brueckner       =     No
    Memory (Mbytes) =     524.3
    Maxiter         =     50
    R_Convergence   =     1.0e-07
    E_Convergence   =     1.0e-08
    Restart         =     Yes
    DIIS            =     Yes
    AO Basis        =     NONE
    ABCD            =     NEW
    Cache Level     =     2
    Cache Type      =     LOW
    Print Level     =     1
    Num. of threads =     1
    # Amps to Print =     10
    Print MP2 Amps? =     No
    Analyze T2 Amps =     No
    Print Pair Ener =     No
    Local CC        =     No
    SCS-MP2         =     False
    SCSN-MP2        =     False
    SCS-CCSD        =     False

    Using old T1 amplitudes.
    Using old T2 amplitudes.

MP2 correlation energy -0.0546278253535697
                Solving CC Amplitude Equations
                ------------------------------
  Iter             Energy              RMS        T1Diag      D1Diag    New D1Diag    D2Diag
  ----     ---------------------    ---------   ----------  ----------  ----------   --------
     0        -0.052805949312973    0.000e+00    0.017361    0.034570    0.034570    0.241127
     1        -0.064159875731952    1.636e-01    0.024541    0.048959    0.048959    0.191742
     2        -0.066568743440259    3.829e-02    0.018440    0.036716    0.036716    0.199841
     3        -0.067491744032405    1.648e-02    0.016131    0.032067    0.032067    0.202462
     4        -0.067862013534072    7.517e-03    0.013793    0.027367    0.027367    0.203905
     5        -0.067896068237781    3.418e-03    0.012232    0.024228    0.024228    0.203630
     6        -0.067851271448020    1.689e-03    0.011234    0.022216    0.022216    0.202860
     7        -0.067812572330418    9.920e-04    0.010383    0.020494    0.020494    0.202143
     8        -0.067794629953308    5.210e-04    0.009790    0.019290    0.019290    0.201721
     9        -0.067794506762863    1.947e-04    0.009600    0.018905    0.018905    0.201643
    10        -0.067796813430345    6.984e-05    0.009557    0.018817    0.018817    0.201649
    11        -0.067797854827049    2.459e-05    0.009546    0.018795    0.018795    0.201657
    12        -0.067798091013397    8.656e-06    0.009545    0.018792    0.018792    0.201659
    13        -0.067798163028160    3.293e-06    0.009545    0.018792    0.018792    0.201660
    14        -0.067798153367264    1.234e-06    0.009544    0.018792    0.018792    0.201661
    15        -0.067798146413443    4.978e-07    0.009545    0.018792    0.018792    0.201661
    16        -0.067798144057350    2.041e-07    0.009545    0.018792    0.018792    0.201661
    17        -0.067798144558510    1.129e-07    0.009545    0.018792    0.018792    0.201661
    18        -0.067798145593751    7.414e-08    0.009545    0.018792    0.018792    0.201661

    Iterations converged.


    Largest TIA Amplitudes:
              1   0        -0.0119925540
              1   1         0.0081641934
              1   3        -0.0075978040
              1  14        -0.0043022977
              1  23        -0.0037065237
              1  16        -0.0033740565
              1   7         0.0032360782
              1   2        -0.0027634447
              1  13        -0.0023497656
              1  11         0.0022897919

    Largest TIjAb Amplitudes:
      1   1   8   8        -0.0487264069
      1   1   8  14         0.0326199678
      1   1  14   8         0.0326199678
      1   1  14  14        -0.0285499817
      1   1  54  54        -0.0275673394
      1   1  38  38        -0.0275673393
      1   1   4   8         0.0267786475
      1   1   8   4         0.0267786475
      1   1   0   8        -0.0262819548
      1   1   8   0        -0.0262819548

    SCF energy       (wfn)                    =   -7.449523608022163
    Reference energy (file100)                =   -7.449523608022172

    Opposite-spin MP2 correlation energy      =   -0.051851871053433
    Same-spin MP2 correlation energy          =   -0.002775954300137
    Singles MP2 correlation energy            =   -0.000000000000000
    MP2 correlation energy                    =   -0.054627825353570
      * MP2 total energy                      =   -7.504151433375742

    Opposite-spin CCSD correlation energy     =   -0.064828351835391
    Same-spin CCSD correlation energy         =   -0.002969793758360
    Singles CCSD correlation energy           =    0.000000000000000
    CCSD correlation energy                   =   -0.067798145593751
      * CCSD total energy                     =   -7.517321753615923


			**************************
			*                        *
			*         CCHBAR         *
			*                        *
			**************************


			**************************
			*        CCLAMBDA        *
			**************************


	Nuclear Rep. energy (wfn)     =    2.645886053350000
	Reference           (wfn)     =                    0
	SCF energy          (wfn)     =   -7.449523608022163
	Reference energy    (CC_INFO) =   -7.449523608022172
	CCSD energy         (CC_INFO) =   -0.067798145593751
	Total CCSD energy   (CC_INFO) =   -7.517321753615923

	Input parameters:
	-----------------
	Maxiter           =     50
	Convergence       = 1.0e-07
	Restart           =     No
	Cache Level       =     2
	Model III         =     No
	DIIS              =     Yes
	AO Basis          =     No
	ABCD              =     NEW
	Local CC          =     No
	Parameters for left-handed eigenvectors:
	    Irr   Root  Ground-State?    EOM energy        R0
	  1   0     0        Yes       0.0000000000   1.0000000000
	Labels for eigenvector 1:
	LIA 0 -1, Lia 0 -1, LIJAB 0 -1, Lijab 0 -1, LIjAb 0 -1, 2LIjAb - LIjbA 0 -1
	Deleting old CC_LAMBDA data.
	Symmetry of left-hand state: A1
	Symmetry of left-hand eigenvector: A1

	          Solving Lambda Equations
	          ------------------------
	Iter     PseudoEnergy or Norm         RMS  
	----     ---------------------     --------
	   0        -0.067804835971438    4.346e-08
	   1        -0.066180450368793    5.374e-03
	   2        -0.065814718045488    1.718e-03
	   3        -0.065725543688641    6.396e-04
	   4        -0.065718845262796    3.338e-04
	   5        -0.065719508769238    2.237e-04
	   6        -0.065719448783836    1.330e-04
	   7        -0.065718778254949    4.329e-05
	   8        -0.065718751599584    1.221e-05
	   9        -0.065718798766057    4.228e-06
	  10        -0.065718800046886    1.300e-06
	  11        -0.065718798702543    3.548e-07
	  12        -0.065718797286482    1.303e-07
	  13        -0.065718796812628    5.240e-08

	Largest LIA Amplitudes:
	          1   0        -0.0109848402
	          1   1         0.0073973322
	          1   3        -0.0067878663
	          1  14        -0.0042203068
	          1  23        -0.0035094837
	          1  16        -0.0031204614
	          1   7         0.0027038457
	          1   2        -0.0025735913
	          1  13        -0.0020026567
	          1  11         0.0019698095

	Largest LIjAb Amplitudes:
	  1   1   8   8        -0.0467713939
	  1   1   8  14         0.0312989812
	  1   1  14   8         0.0312989812
	  1   1  14  14        -0.0273830429
	  1   1  38  38        -0.0264371526
	  1   1  54  54        -0.0264371526
	  1   1   4   8         0.0257271910
	  1   1   8   4         0.0257271910
	  1   1   0   8        -0.0251845964
	  1   1   8   0        -0.0251845964

	Iterations converged.

	Overlap <L|e^T> =        0.95745909495

			**************************
			*                        *
			*        CCDENSITY       *
			*                        *
			**************************


	Input parameters:
	-----------------
	Wave function    =   CCSD
	Reference wfn    =   RHF
	Dertype          = 0
	Tolerance        = 1.0e-14
	Cache Level      = 2
	AO Basis         = No
	OPDM Only        = Yes
	Relax OPDM       = No
	Compute Xi       = No
	Use Zeta         = No
	Xi connected     = Yes
	Compute NO       = No

	Nuclear Rep. energy (wfn)     =    2.645886053350000
	SCF energy          (wfn)     =   -7.449523608022163
	Reference energy    (file100) =   -7.449523608022172
	CCSD energy         (CC_INFO) =   -0.067798145593751
	Total CCSD energy   (CC_INFO) =   -7.517321753615923
	Number of States = 1

	Ground?  State     EOM Energy       R0
	  Yes     0 A1    0.0000000000   1.00000000


Properties will be evaluated at   0.000000,   0.000000,   0.000000 [a0]

Properties computed using the CCSD density matrix


 Multipole Moments:

 ------------------------------------------------------------------------------------
     Multipole            Electronic (a.u.)      Nuclear  (a.u.)        Total (a.u.)
 ------------------------------------------------------------------------------------

 L = 1.  Multiply by 2.5417464519 to convert [e a0] to [Debye]
 Dipole X            :          0.0000000            0.0000000            0.0000000
 Dipole Y            :          0.0000000            0.0000000            0.0000000
 Dipole Z            :         -2.5133513            0.5641784           -1.9491729
 Magnitude           :                                                    1.9491729

 L = 2.  Multiply by 1.3450342976 to convert [e a0^2] to [Debye ang]
 Quadrupole XX       :         -4.2316310            0.0000000           -4.2316310
 Quadrupole XY       :          0.0000000            0.0000000            0.0000000
 Quadrupole XZ       :          0.0000000            0.0000000            0.0000000
 Quadrupole YY       :         -4.2316310            0.0000000           -4.2316310
 Quadrupole YZ       :          0.0000000            0.0000000            0.0000000
 Quadrupole ZZ       :         -6.8263204            1.0437618           -5.7825586
 Traceless XX        :          0.8648965           -0.3479206            0.5169759
 Traceless YY        :          0.8648965           -0.3479206            0.5169759
 Traceless ZZ        :         -1.7297930            0.6958412           -1.0339517

 ------------------------------------------------------------------------------------
  Mulliken Charges: (a.u.)
   Center  Symbol    Alpha    Beta     Spin     Total
       1    LI     1.84488  1.84488  0.00000 -0.68976
       2     H     0.15512  0.15512  0.00000  0.68976

   Total alpha =  2.00000, Total beta =  2.00000, Total charge = -0.00000

  Natural Orbital Occupations:

  Total Occupations:
  HONO-1 :    1 A1    1.995
  HONO-0 :    2 A1    1.921
  LUNO+0 :    3 A1    0.038
  LUNO+1 :    1 B2    0.018
  LUNO+2 :    1 B1    0.018
  LUNO+3 :    4 A1    0.004

Molecule: Setting geometry variable R to 0.700000
   => Libint2 <=

    Primary   basis highest AM E, G, H:  5, 4, 3
    Auxiliary basis highest AM E, G, H:  6, 5, 4
    Onebody   basis highest AM E, G, H:  6, 5, 4
    Solid Harmonics ordering:            Gaussian

*** tstart() called on Azul
*** at Wed Aug 28 18:56:58 2024

   => Loading Basis Set <=

    Name: AUG-CC-PVTZ
    Role: ORBITAL
    Keyword: BASIS
    atoms 1 entry LI         line    85 file /home/gustavo/psi4conda/share/psi4/basis/aug-cc-pvtz.gbs 
    atoms 2 entry H          line    40 file /home/gustavo/psi4conda/share/psi4/basis/aug-cc-pvtz.gbs 


         ---------------------------------------------------------
                                   SCF
               by Justin Turney, Rob Parrish, Andy Simmonett
                          and Daniel G. A. Smith
                              RHF Reference
                        1 Threads,    500 MiB Core
         ---------------------------------------------------------

  ==> Geometry <==

    Molecular point group: c2v
    Full point group: C_inf_v

    Geometry (in Angstrom), charge = 0, multiplicity = 1:

       Center              X                  Y                   Z               Mass       
    ------------   -----------------  -----------------  -----------------  -----------------
         LI           0.000000000000     0.000000000000    -0.087922807087     7.016003436600
         H            0.000000000000     0.000000000000     0.612077192913     1.007825032230

  Running in c2v symmetry.

  Rotational constants: A = ************  B =     39.03976  C =     39.03976 [cm^-1]
  Rotational constants: A = ************  B = 1170382.50423  C = 1170382.50423 [MHz]
  Nuclear repulsion =    2.267902331442857

  Charge       = 0
  Multiplicity = 1
  Electrons    = 4
  Nalpha       = 2
  Nbeta        = 2

  ==> Algorithm <==

  SCF Algorithm Type is PK.
  DIIS enabled.
  MOM disabled.
  Fractional occupation disabled.
  Guess Type is SAD.
  Energy threshold   = 1.00e-10
  Density threshold  = 1.00e-10
  Integral threshold = 1.00e-12

  ==> Primary Basis <==

  Basis Set: AUG-CC-PVTZ
    Blend: AUG-CC-PVTZ
    Number of shells: 23
    Number of basis functions: 69
    Number of Cartesian functions: 80
    Spherical Harmonics?: true
    Max angular momentum: 3

  ==> Integral Setup <==

  Using in-core PK algorithm.
   Calculation information:
      Number of atoms:                   2
      Number of AO shells:              23
      Number of primitives:             49
      Number of atomic orbitals:        80
      Number of basis functions:        69

      Integral cutoff                 1.00e-12
      Number of threads:                 1

  Performing in-core PK
  Using 5834640 doubles for integral storage.
  We computed 38226 shell quartets total.
  Whereas there are 38226 unique shell quartets.

  ==> DiskJK: Disk-Based J/K Matrices <==

    J tasked:                  Yes
    K tasked:                  Yes
    wK tasked:                  No
    Memory [MiB]:              375
    Schwarz Cutoff:          1E-12

    OpenMP threads:              1

  Minimum eigenvalue in the overlap matrix is 7.2361214366E-05.
  Reciprocal condition number of the overlap matrix is 1.3273431824E-05.
    Using symmetric orthogonalization.

  ==> Pre-Iterations <==

  SCF Guess: Superposition of Atomic Densities via on-the-fly atomic UHF (no occupation information).

   -------------------------
    Irrep   Nso     Nmo    
   -------------------------
     A1        30      30 
     A2         7       7 
     B1        16      16 
     B2        16      16 
   -------------------------
    Total      69      69
   -------------------------

  ==> Iterations <==

                        Total Energy        Delta E     RMS |[F,P]|

   @RHF iter SAD:    -7.69087576851712   -7.69088e+00   0.00000e+00 
   @RHF iter   1:    -7.61082627176436    8.00495e-02   3.73690e-03 ADIIS/DIIS
   @RHF iter   2:    -7.62319942193638   -1.23732e-02   4.01697e-04 ADIIS/DIIS
   @RHF iter   3:    -7.62349936846535   -2.99947e-04   1.22224e-04 ADIIS/DIIS
   @RHF iter   4:    -7.62356073920977   -6.13707e-05   4.35148e-05 DIIS
   @RHF iter   5:    -7.62357618533965   -1.54461e-05   1.56953e-05 DIIS
   @RHF iter   6:    -7.62357835692920   -2.17159e-06   1.89889e-06 DIIS
   @RHF iter   7:    -7.62357838053701   -2.36078e-08   2.40025e-07 DIIS
   @RHF iter   8:    -7.62357838083130   -2.94293e-10   2.15361e-08 DIIS
   @RHF iter   9:    -7.62357838083289   -1.58629e-12   1.86185e-09 DIIS
   @RHF iter  10:    -7.62357838083293   -4.26326e-14   3.20584e-10 DIIS
   @RHF iter  11:    -7.62357838083292    1.15463e-14   3.31614e-11 DIIS
  Energy and wave function converged.


  ==> Post-Iterations <==

    Orbital Energies [Eh]
    ---------------------

    Doubly Occupied:                                                      

       1A1    -2.547357     2A1    -0.300637  

    Virtual:                                                              

       3A1    -0.003334     1B1     0.016915     1B2     0.016915  
       4A1     0.023722     5A1     0.025068     2B1     0.054738  
       2B2     0.054738     6A1     0.081853     7A1     0.093278  
       8A1     0.115222     1A2     0.115222     3B1     0.118320  
       3B2     0.118320     9A1     0.118640     4B1     0.145973  
       4B2     0.145973    10A1     0.222769    11A1     0.273944  
       2A2     0.295604    12A1     0.295604     5B1     0.296632  
       5B2     0.296632    13A1     0.299624     6B1     0.300166  
       6B2     0.300166    14A1     0.326427     7B1     0.331039  
       7B2     0.331039    15A1     0.333511     3A2     0.333511  
       8B1     0.364519     8B2     0.364519    16A1     0.545969  
      17A1     0.692391     4A2     0.727885    18A1     0.727885  
       9B1     0.732039     9B2     0.732039    19A1     0.741211  
      20A1     0.766201    10B1     0.767705    10B2     0.767705  
      11B1     0.780409    11B2     0.780409     5A2     0.820600  
      21A1     0.820600    12B1     0.889974    12B2     0.889974  
      22A1     1.298257     6A2     1.384802    23A1     1.384802  
      13B2     1.444553    13B1     1.444553    24A1     1.586922  
      25A1     2.169415    14B2     2.235846    14B1     2.235846  
      26A1     2.899612    15B2     3.763259    15B1     3.763259  
       7A2     4.067569    27A1     4.067569    28A1     4.500640  
      16B2     4.690114    16B1     4.690114    29A1     5.259821  
      30A1     5.804738  

    Final Occupation by Irrep:
             A1    A2    B1    B2 
    DOCC [     2,    0,    0,    0 ]
    NA   [     2,    0,    0,    0 ]
    NB   [     2,    0,    0,    0 ]

  @RHF Final Energy:    -7.62357838083292

   => Energetics <=

    Nuclear Repulsion Energy =              2.2679023314428575
    One-Electron Energy =                 -14.0869717679363902
    Two-Electron Energy =                   4.1954910556606100
    Total Energy =                         -7.6235783808329218

Computation Completed


Properties will be evaluated at   0.000000,   0.000000,   0.000000 [a0]

Properties computed using the SCF density matrix


 Multipole Moments:

 ------------------------------------------------------------------------------------
     Multipole            Electronic (a.u.)      Nuclear  (a.u.)        Total (a.u.)
 ------------------------------------------------------------------------------------

 L = 1.  Multiply by 2.5417464519 to convert [e a0] to [Debye]
 Dipole X            :          0.0000000            0.0000000            0.0000000
 Dipole Y            :          0.0000000            0.0000000            0.0000000
 Dipole Z            :         -2.5934121            0.6582082           -1.9352039
 Magnitude           :                                                    1.9352039

 ------------------------------------------------------------------------------------

*** tstop() called on Azul at Wed Aug 28 18:56:59 2024
Module time:
	user time   =       1.03 seconds =       0.02 minutes
	system time =       0.12 seconds =       0.00 minutes
	total time  =          1 seconds =       0.02 minutes
Total time:
	user time   =       5.48 seconds =       0.09 minutes
	system time =       2.10 seconds =       0.04 minutes
	total time  =          7 seconds =       0.12 minutes
 MINTS: Wrapper to libmints.
   by Justin Turney

   Calculation information:
      Number of threads:                 1
      Number of atoms:                   2
      Number of AO shells:              23
      Number of SO shells:              23
      Number of primitives:             49
      Number of atomic orbitals:        80
      Number of basis functions:        69

      Number of irreps:                  4
      Integral cutoff                 1.00e-12
      Number of functions per irrep: [  30    7   16   16 ]

 OEINTS: Overlap, kinetic, potential, dipole, and quadrupole integrals
         stored in file 35.

      Computing two-electron integrals...done
      Computed 564134 non-zero two-electron integrals.
        Stored in file 33.


*** tstart() called on Azul
*** at Wed Aug 28 18:57:00 2024


	Wfn Parameters:
	--------------------
	Wavefunction         = CCSD
	Number of irreps     = 4
	Number of MOs        = 69
	Number of active MOs = 69
	AO-Basis             = NONE
	Semicanonical        = false
	Reference            = RHF
	Print Level          = 1

	IRREP	# MOs	# FZDC	# DOCC	# SOCC	# VIRT	# FZVR
	-----	-----	------	------	------	------	------
	 A1	   30	    0	    2	    0	    28	    0
	 A2	   7	    0	    0	    0	    7	    0
	 B1	   16	    0	    0	    0	    16	    0
	 B2	   16	    0	    0	    0	    16	    0
	Transforming integrals...
	IWL integrals will be deleted.
	(OO|OO)...
	Presorting SO-basis two-electron integrals.
	Sorting File: SO Ints (nn|nn) nbuckets = 1
	Constructing frozen core operators
	Starting first half-transformation.
	Sorting half-transformed integrals.
	First half integral transformation complete.
	Starting second half-transformation.
	Two-electron integral transformation complete.
	(OO|OV)...
	Starting second half-transformation.
	Two-electron integral transformation complete.
	(OO|VV)...
	Starting second half-transformation.
	Two-electron integral transformation complete.
	(OV|OO)...
	Starting first half-transformation.
	Sorting half-transformed integrals.
	First half integral transformation complete.
	Starting second half-transformation.
	Two-electron integral transformation complete.
	(OV|OV)...
	Starting second half-transformation.
	Two-electron integral transformation complete.
	(OV|VV)...
	Starting second half-transformation.
	Two-electron integral transformation complete.
	(VV|OO)...
	Starting first half-transformation.
	Sorting half-transformed integrals.
	First half integral transformation complete.
	Starting second half-transformation.
	Two-electron integral transformation complete.
	(VV|OV)...
	Starting second half-transformation.
	Two-electron integral transformation complete.
	(VV|VV)...
	Starting second half-transformation.
	Two-electron integral transformation complete.
	Frozen core energy     =      0.00000000000000

	Size of irrep 0 of <ab|cd> integrals:      1.809 (MW) /     14.472 (MB)
	Size of irrep 1 of <ab|cd> integrals:      0.817 (MW) /      6.538 (MB)
	Size of irrep 2 of <ab|cd> integrals:      1.254 (MW) /     10.035 (MB)
	Size of irrep 3 of <ab|cd> integrals:      1.254 (MW) /     10.035 (MB)
	Total:                                     5.135 (MW) /     41.080 (MB)

	Size of irrep 0 of <ia|bc> integrals:      0.075 (MW) /      0.603 (MB)
	Size of irrep 1 of <ia|bc> integrals:      0.013 (MW) /      0.101 (MB)
	Size of irrep 2 of <ia|bc> integrals:      0.036 (MW) /      0.287 (MB)
	Size of irrep 3 of <ia|bc> integrals:      0.036 (MW) /      0.287 (MB)
	Total:                                     0.160 (MW) /      1.277 (MB)

	Size of irrep 0 of tijab amplitudes:       0.005 (MW) /      0.043 (MB)
	Size of irrep 1 of tijab amplitudes:       0.000 (MW) /      0.000 (MB)
	Size of irrep 2 of tijab amplitudes:       0.000 (MW) /      0.000 (MB)
	Size of irrep 3 of tijab amplitudes:       0.000 (MW) /      0.000 (MB)
	Total:                                     0.005 (MW) /      0.043 (MB)

	Nuclear Rep. energy          =      2.26790233144286
	SCF energy                   =     -7.62357838083292
	One-electron energy          =    -14.08697176660340
	Two-electron energy          =      4.19549105432762
	Reference energy             =     -7.62357838083292

*** tstop() called on Azul at Wed Aug 28 18:57:00 2024
Module time:
	user time   =       0.34 seconds =       0.01 minutes
	system time =       0.22 seconds =       0.00 minutes
	total time  =          0 seconds =       0.00 minutes
Total time:
	user time   =       6.17 seconds =       0.10 minutes
	system time =       2.33 seconds =       0.04 minutes
	total time  =          8 seconds =       0.13 minutes
            **************************
            *                        *
            *        CCENERGY        *
            *                        *
            **************************

    Nuclear Rep. energy (wfn)     =    2.267902331442857
    SCF energy          (wfn)     =   -7.623578380832922
    Reference energy    (file100) =   -7.623578380832920

    Input parameters:
    -----------------
    Wave function   =     CCSD
    Reference wfn   =     RHF
    Brueckner       =     No
    Memory (Mbytes) =     524.3
    Maxiter         =     50
    R_Convergence   =     1.0e-07
    E_Convergence   =     1.0e-08
    Restart         =     Yes
    DIIS            =     Yes
    AO Basis        =     NONE
    ABCD            =     NEW
    Cache Level     =     2
    Cache Type      =     LOW
    Print Level     =     1
    Num. of threads =     1
    # Amps to Print =     10
    Print MP2 Amps? =     No
    Analyze T2 Amps =     No
    Print Pair Ener =     No
    Local CC        =     No
    SCS-MP2         =     False
    SCSN-MP2        =     False
    SCS-CCSD        =     False

    Using old T1 amplitudes.
    Using old T2 amplitudes.

MP2 correlation energy -0.0528797108633921
                Solving CC Amplitude Equations
                ------------------------------
  Iter             Energy              RMS        T1Diag      D1Diag    New D1Diag    D2Diag
  ----     ---------------------    ---------   ----------  ----------  ----------   --------
     0        -0.059426416610613    0.000e+00    0.009545    0.018792    0.018792    0.201661
     1        -0.063883803674447    9.563e-02    0.013446    0.026630    0.026630    0.181103
     2        -0.064674410795912    3.259e-02    0.007370    0.014291    0.014291    0.182127
     3        -0.065016771710290    1.454e-02    0.006017    0.011483    0.011483    0.183207
     4        -0.065075524100953    4.603e-03    0.005986    0.011434    0.011434    0.183666
     5        -0.065075065574153    1.600e-03    0.006205    0.011902    0.011902    0.183836
     6        -0.065074652552566    7.875e-04    0.006498    0.012518    0.012518    0.183950
     7        -0.065078118938323    4.351e-04    0.006774    0.013094    0.013094    0.184064
     8        -0.065081815340802    2.113e-04    0.006967    0.013495    0.013495    0.184164
     9        -0.065083059767372    6.952e-05    0.007018    0.013602    0.013602    0.184200
    10        -0.065083676658823    2.571e-05    0.007032    0.013630    0.013630    0.184215
    11        -0.065083931457811    8.637e-06    0.007035    0.013636    0.013636    0.184219
    12        -0.065083980020692    2.741e-06    0.007035    0.013637    0.013637    0.184220
    13        -0.065083990035342    1.175e-06    0.007035    0.013637    0.013637    0.184220
    14        -0.065083989659158    4.651e-07    0.007035    0.013637    0.013637    0.184220
    15        -0.065083988000684    1.775e-07    0.007035    0.013637    0.013637    0.184220
    16        -0.065083987470051    6.154e-08    0.007035    0.013637    0.013637    0.184220

    Iterations converged.


    Largest TIA Amplitudes:
              1   0        -0.0078259368
              1   3        -0.0058757149
              1   1        -0.0051367548
              1   2        -0.0035317025
              1  23        -0.0033344680
              1  14        -0.0032720205
              1  16        -0.0024806415
              1  21         0.0022614133
              0  13        -0.0022075081
              0  21         0.0019545618

    Largest TIjAb Amplitudes:
      1   1   8   8        -0.0456469835
      1   1   8  14         0.0314192227
      1   1  14   8         0.0314192227
      1   1  14  14        -0.0276532863
      1   1  42  42        -0.0243632199
      1   1  58  58        -0.0243632199
      1   1   3   8        -0.0243140975
      1   1   8   3        -0.0243140975
      1   1  38  42        -0.0227100701
      1   1  42  38        -0.0227100701

    SCF energy       (wfn)                    =   -7.623578380832922
    Reference energy (file100)                =   -7.623578380832920

    Opposite-spin MP2 correlation energy      =   -0.050505926905489
    Same-spin MP2 correlation energy          =   -0.002373783957903
    Singles MP2 correlation energy            =   -0.000000000000000
    MP2 correlation energy                    =   -0.052879710863392
      * MP2 total energy                      =   -7.676458091696312

    Opposite-spin CCSD correlation energy     =   -0.062523217387078
    Same-spin CCSD correlation energy         =   -0.002560770082974
    Singles CCSD correlation energy           =    0.000000000000000
    CCSD correlation energy                   =   -0.065083987470051
      * CCSD total energy                     =   -7.688662368302971


			**************************
			*                        *
			*         CCHBAR         *
			*                        *
			**************************


			**************************
			*        CCLAMBDA        *
			**************************


	Nuclear Rep. energy (wfn)     =    2.267902331442857
	Reference           (wfn)     =                    0
	SCF energy          (wfn)     =   -7.623578380832922
	Reference energy    (CC_INFO) =   -7.623578380832920
	CCSD energy         (CC_INFO) =   -0.065083987470051
	Total CCSD energy   (CC_INFO) =   -7.688662368302971

	Input parameters:
	-----------------
	Maxiter           =     50
	Convergence       = 1.0e-07
	Restart           =     No
	Cache Level       =     2
	Model III         =     No
	DIIS              =     Yes
	AO Basis          =     No
	ABCD              =     NEW
	Local CC          =     No
	Parameters for left-handed eigenvectors:
	    Irr   Root  Ground-State?    EOM energy        R0
	  1   0     0        Yes       0.0000000000   1.0000000000
	Labels for eigenvector 1:
	LIA 0 -1, Lia 0 -1, LIJAB 0 -1, Lijab 0 -1, LIjAb 0 -1, 2LIjAb - LIjbA 0 -1
	Deleting old CC_LAMBDA data.
	Symmetry of left-hand state: A1
	Symmetry of left-hand eigenvector: A1

	          Solving Lambda Equations
	          ------------------------
	Iter     PseudoEnergy or Norm         RMS  
	----     ---------------------     --------
	   0        -0.065088737994335    5.240e-08
	   1        -0.063770064506210    4.311e-03
	   2        -0.063475945580298    1.309e-03
	   3        -0.063412960223364    4.749e-04
	   4        -0.063409453333408    2.483e-04
	   5        -0.063410471205348    1.476e-04
	   6        -0.063410509668746    7.292e-05
	   7        -0.063410094431376    2.159e-05
	   8        -0.063410068458232    6.624e-06
	   9        -0.063410105090786    2.201e-06
	  10        -0.063410106348277    6.795e-07
	  11        -0.063410106029521    2.151e-07
	  12        -0.063410104280851    8.016e-08

	Largest LIA Amplitudes:
	          1   0        -0.0070677905
	          1   3        -0.0051771232
	          1   1        -0.0045678160
	          1  14        -0.0033110249
	          1   2        -0.0032123393
	          1  23        -0.0032002917
	          1  16        -0.0023079047
	          1  21         0.0020544358
	          0  13        -0.0020409392
	          0  21         0.0018447948

	Largest LIjAb Amplitudes:
	  1   1   8   8        -0.0440900099
	  1   1   8  14         0.0303540282
	  1   1  14   8         0.0303540282
	  1   1  14  14        -0.0267185042
	  1   1  42  42        -0.0235232344
	  1   1  58  58        -0.0235232344
	  1   1   3   8        -0.0234441089
	  1   1   8   3        -0.0234441089
	  1   1  38  42        -0.0219243059
	  1   1  42  38        -0.0219243059

	Iterations converged.

	Overlap <L|e^T> =        0.96410314341

			**************************
			*                        *
			*        CCDENSITY       *
			*                        *
			**************************


	Input parameters:
	-----------------
	Wave function    =   CCSD
	Reference wfn    =   RHF
	Dertype          = 0
	Tolerance        = 1.0e-14
	Cache Level      = 2
	AO Basis         = No
	OPDM Only        = Yes
	Relax OPDM       = No
	Compute Xi       = No
	Use Zeta         = No
	Xi connected     = Yes
	Compute NO       = No

	Nuclear Rep. energy (wfn)     =    2.267902331442857
	SCF energy          (wfn)     =   -7.623578380832922
	Reference energy    (file100) =   -7.623578380832920
	CCSD energy         (CC_INFO) =   -0.065083987470051
	Total CCSD energy   (CC_INFO) =   -7.688662368302971
	Number of States = 1

	Ground?  State     EOM Energy       R0
	  Yes     0 A1    0.0000000000   1.00000000


Properties will be evaluated at   0.000000,   0.000000,   0.000000 [a0]

Properties computed using the CCSD density matrix


 Multipole Moments:

 ------------------------------------------------------------------------------------
     Multipole            Electronic (a.u.)      Nuclear  (a.u.)        Total (a.u.)
 ------------------------------------------------------------------------------------

 L = 1.  Multiply by 2.5417464519 to convert [e a0] to [Debye]
 Dipole X            :          0.0000000            0.0000000            0.0000000
 Dipole Y            :          0.0000000            0.0000000            0.0000000
 Dipole Z            :         -2.5690494            0.6582082           -1.9108412
 Magnitude           :                                                    1.9108412

 L = 2.  Multiply by 1.3450342976 to convert [e a0^2] to [Debye ang]
 Quadrupole XX       :         -3.8201658            0.0000000           -3.8201658
 Quadrupole XY       :          0.0000000            0.0000000            0.0000000
 Quadrupole XZ       :          0.0000000            0.0000000            0.0000000
 Quadrupole YY       :         -3.8201658            0.0000000           -3.8201658
 Quadrupole YZ       :          0.0000000            0.0000000            0.0000000
 Quadrupole ZZ       :         -6.9834535            1.4206758           -5.5627777
 Traceless XX        :          1.0544292           -0.4735586            0.5808706
 Traceless YY        :          1.0544292           -0.4735586            0.5808706
 Traceless ZZ        :         -2.1088585            0.9471172           -1.1617412

 ------------------------------------------------------------------------------------
  Mulliken Charges: (a.u.)
   Center  Symbol    Alpha    Beta     Spin     Total
       1    LI     1.77518  1.77518  0.00000 -0.55036
       2     H     0.22482  0.22482  0.00000  0.55036

   Total alpha =  2.00000, Total beta =  2.00000, Total charge = -0.00000

  Natural Orbital Occupations:

  Total Occupations:
  HONO-1 :    1 A1    1.995
  HONO-0 :    2 A1    1.934
  LUNO+0 :    3 A1    0.032
  LUNO+1 :    1 B2    0.014
  LUNO+2 :    1 B1    0.014
  LUNO+3 :    4 A1    0.004

Molecule: Setting geometry variable R to 0.800000
   => Libint2 <=

    Primary   basis highest AM E, G, H:  5, 4, 3
    Auxiliary basis highest AM E, G, H:  6, 5, 4
    Onebody   basis highest AM E, G, H:  6, 5, 4
    Solid Harmonics ordering:            Gaussian

*** tstart() called on Azul
*** at Wed Aug 28 18:57:01 2024

   => Loading Basis Set <=

    Name: AUG-CC-PVTZ
    Role: ORBITAL
    Keyword: BASIS
    atoms 1 entry LI         line    85 file /home/gustavo/psi4conda/share/psi4/basis/aug-cc-pvtz.gbs 
    atoms 2 entry H          line    40 file /home/gustavo/psi4conda/share/psi4/basis/aug-cc-pvtz.gbs 


         ---------------------------------------------------------
                                   SCF
               by Justin Turney, Rob Parrish, Andy Simmonett
                          and Daniel G. A. Smith
                              RHF Reference
                        1 Threads,    500 MiB Core
         ---------------------------------------------------------

  ==> Geometry <==

    Molecular point group: c2v
    Full point group: C_inf_v

    Geometry (in Angstrom), charge = 0, multiplicity = 1:

       Center              X                  Y                   Z               Mass       
    ------------   -----------------  -----------------  -----------------  -----------------
         LI           0.000000000000     0.000000000000    -0.100483208099     7.016003436600
         H            0.000000000000     0.000000000000     0.699516791901     1.007825032230

  Running in c2v symmetry.

  Rotational constants: A = ************  B =     29.88981  C =     29.88981 [cm^-1]
  Rotational constants: A = ************  B = 896074.10480  C = 896074.10480 [MHz]
  Nuclear repulsion =    1.984414540012500

  Charge       = 0
  Multiplicity = 1
  Electrons    = 4
  Nalpha       = 2
  Nbeta        = 2

  ==> Algorithm <==

  SCF Algorithm Type is PK.
  DIIS enabled.
  MOM disabled.
  Fractional occupation disabled.
  Guess Type is SAD.
  Energy threshold   = 1.00e-10
  Density threshold  = 1.00e-10
  Integral threshold = 1.00e-12

  ==> Primary Basis <==

  Basis Set: AUG-CC-PVTZ
    Blend: AUG-CC-PVTZ
    Number of shells: 23
    Number of basis functions: 69
    Number of Cartesian functions: 80
    Spherical Harmonics?: true
    Max angular momentum: 3

  ==> Integral Setup <==

  Using in-core PK algorithm.
   Calculation information:
      Number of atoms:                   2
      Number of AO shells:              23
      Number of primitives:             49
      Number of atomic orbitals:        80
      Number of basis functions:        69

      Integral cutoff                 1.00e-12
      Number of threads:                 1

  Performing in-core PK
  Using 5834640 doubles for integral storage.
  We computed 38226 shell quartets total.
  Whereas there are 38226 unique shell quartets.

  ==> DiskJK: Disk-Based J/K Matrices <==

    J tasked:                  Yes
    K tasked:                  Yes
    wK tasked:                  No
    Memory [MiB]:              375
    Schwarz Cutoff:          1E-12

    OpenMP threads:              1

  Minimum eigenvalue in the overlap matrix is 1.0558858632E-04.
  Reciprocal condition number of the overlap matrix is 1.9365481133E-05.
    Using symmetric orthogonalization.

  ==> Pre-Iterations <==

  SCF Guess: Superposition of Atomic Densities via on-the-fly atomic UHF (no occupation information).

   -------------------------
    Irrep   Nso     Nmo    
   -------------------------
     A1        30      30 
     A2         7       7 
     B1        16      16 
     B2        16      16 
   -------------------------
    Total      69      69
   -------------------------

  ==> Iterations <==

                        Total Energy        Delta E     RMS |[F,P]|

   @RHF iter SAD:    -7.70998122209314   -7.70998e+00   0.00000e+00 
   @RHF iter   1:    -7.73139264029778   -2.14114e-02   3.83666e-03 ADIIS/DIIS
   @RHF iter   2:    -7.74452263173118   -1.31300e-02   3.55960e-04 ADIIS/DIIS
   @RHF iter   3:    -7.74475283460965   -2.30203e-04   9.57255e-05 DIIS
   @RHF iter   4:    -7.74478293929199   -3.01047e-05   2.63741e-05 DIIS
   @RHF iter   5:    -7.74478775713648   -4.81784e-06   9.36350e-06 DIIS
   @RHF iter   6:    -7.74478843745577   -6.80319e-07   1.29461e-06 DIIS
   @RHF iter   7:    -7.74478844757208   -1.01163e-08   1.43673e-07 DIIS
   @RHF iter   8:    -7.74478844767077   -9.86855e-11   1.31011e-08 DIIS
   @RHF iter   9:    -7.74478844767136   -5.88862e-13   1.24844e-09 DIIS
   @RHF iter  10:    -7.74478844767137   -6.21725e-15   1.44606e-10 DIIS
   @RHF iter  11:    -7.74478844767135    1.42109e-14   1.30369e-11 DIIS
  Energy and wave function converged.


  ==> Post-Iterations <==

    Orbital Energies [Eh]
    ---------------------

    Doubly Occupied:                                                      

       1A1    -2.482062     2A1    -0.312078  

    Virtual:                                                              

       3A1    -0.002423     1B1     0.016994     1B2     0.016994  
       4A1     0.024578     5A1     0.025442     2B2     0.055480  
       2B1     0.055480     6A1     0.082310     7A1     0.094279  
       8A1     0.115471     1A2     0.115471     3B2     0.118109  
       3B1     0.118109     9A1     0.119034     4B1     0.148463  
       4B2     0.148463    10A1     0.223125    11A1     0.275722  
       2A2     0.296555    12A1     0.296555     5B2     0.298063  
       5B1     0.298063     6B1     0.300136     6B2     0.300136  
      13A1     0.302951    14A1     0.324779     7B2     0.328739  
       7B1     0.328739     3A2     0.335387    15A1     0.335387  
       8B2     0.370232     8B1     0.370232    16A1     0.544887  
      17A1     0.706077     4A2     0.731484    18A1     0.731484  
       9B1     0.735410     9B2     0.735410    19A1     0.742796  
      20A1     0.763129    10B1     0.768902    10B2     0.768902  
      11B1     0.773633    11B2     0.773633     5A2     0.829716  
      21A1     0.829716    12B1     0.897986    12B2     0.897986  
      22A1     1.241031    23A1     1.341716     6A2     1.341716  
      13B1     1.416969    13B2     1.416969    24A1     1.588923  
[...]
    Number of shells: 23
    Number of basis functions: 69
    Number of Cartesian functions: 80
    Spherical Harmonics?: true
    Max angular momentum: 3

  ==> Integral Setup <==

  Using in-core PK algorithm.
   Calculation information:
      Number of atoms:                   2
      Number of AO shells:              23
      Number of primitives:             49
      Number of atomic orbitals:        80
      Number of basis functions:        69

      Integral cutoff                 1.00e-12
      Number of threads:                 1

  Performing in-core PK
  Using 5834640 doubles for integral storage.
  We computed 37994 shell quartets total.
  Whereas there are 38226 unique shell quartets.

  ==> DiskJK: Disk-Based J/K Matrices <==

    J tasked:                  Yes
    K tasked:                  Yes
    wK tasked:                  No
    Memory [MiB]:              375
    Schwarz Cutoff:          1E-12

    OpenMP threads:              1

  Minimum eigenvalue in the overlap matrix is 1.2643333901E-03.
  Reciprocal condition number of the overlap matrix is 3.5800813833E-04.
    Using symmetric orthogonalization.

  ==> Pre-Iterations <==

  SCF Guess: Superposition of Atomic Densities via on-the-fly atomic UHF (no occupation information).

   -------------------------
    Irrep   Nso     Nmo    
   -------------------------
     A1        30      30 
     A2         7       7 
     B1        16      16 
     B2        16      16 
   -------------------------
    Total      69      69
   -------------------------

  ==> Iterations <==

                        Total Energy        Delta E     RMS |[F,P]|

   @RHF iter SAD:    -7.67255888003152   -7.67256e+00   0.00000e+00 
   @RHF iter   1:    -7.77500731947899   -1.02448e-01   3.01267e-03 ADIIS/DIIS
   @RHF iter   2:    -7.45803696120220    3.16970e-01   2.26063e-03 ADIIS/DIIS
   @RHF iter   3:    -7.75932818230689   -3.01291e-01   3.92436e-03 ADIIS/DIIS
   @RHF iter   4:    -7.79834324168154   -3.90151e-02   1.20158e-03 ADIIS/DIIS
   @RHF iter   5:    -7.80949773167218   -1.11545e-02   5.87917e-04 ADIIS/DIIS
   @RHF iter   6:    -7.81348819194580   -3.99046e-03   5.55057e-04 ADIIS/DIIS
   @RHF iter   7:    -7.81761568984021   -4.12750e-03   7.75728e-04 ADIIS/DIIS
   @RHF iter   8:    -7.81798848528796   -3.72795e-04   6.97119e-04 ADIIS/DIIS
   @RHF iter   9:    -7.81943060374303   -1.44212e-03   2.51242e-04 ADIIS/DIIS
   @RHF iter  10:    -7.81975124566276   -3.20642e-04   3.41681e-05 DIIS
   @RHF iter  11:    -7.81975705733576   -5.81167e-06   4.17147e-06 DIIS
   @RHF iter  12:    -7.81975709773993   -4.04042e-08   1.94329e-06 DIIS
   @RHF iter  13:    -7.81975711645868   -1.87188e-08   4.16059e-07 DIIS
   @RHF iter  14:    -7.81975711701311   -5.54431e-10   8.93512e-09 DIIS
   @RHF iter  15:    -7.81975711701350   -3.87246e-13   1.06752e-09 DIIS
   @RHF iter  16:    -7.81975711701349    1.42109e-14   7.15563e-10 DIIS
   @RHF iter  17:    -7.81975711701352   -2.84217e-14   1.60309e-11 DIIS
  Energy and wave function converged.


  ==> Post-Iterations <==

    Orbital Energies [Eh]
    ---------------------

    Doubly Occupied:                                                      

       1A1    -2.630010     2A1    -0.171569  

    Virtual:                                                              

       3A1    -0.089391     1B2    -0.017486     1B1    -0.017486  
       4A1    -0.014294     5A1     0.004442     2B2     0.019362  
       2B1     0.019362     6A1     0.029375     7A1     0.070281  
       1A2     0.070281     3B2     0.074416     3B1     0.074416  
       8A1     0.079375     4B2     0.094355     4B1     0.094355  
       9A1     0.100345    10A1     0.124089    11A1     0.149027  
       5B1     0.238418     5B2     0.238418     2A2     0.241538  
      12A1     0.241538    13A1     0.243576     6B2     0.244010  
       6B1     0.244010     3A2     0.252354    14A1     0.252354  
       7B2     0.256245     7B1     0.256245    15A1     0.261422  
       8B1     0.318636     8B2     0.318636    16A1     0.350029  
       9B2     0.378584     9B1     0.378584    17A1     0.391214  
      18A1     0.639933    10B1     0.663239    10B2     0.663239  
       4A2     0.665302    19A1     0.665302    11B1     0.667231  
      11B2     0.667231    20A1     0.673683     5A2     0.708484  
      21A1     0.708484    12B2     0.711253    12B1     0.711253  
      22A1     0.722082     6A2     0.946810    23A1     0.946810  
      13B1     0.947261    13B2     0.947261    24A1     0.953055  
      14B2     1.170752    14B1     1.170752    25A1     1.194171  
      26A1     2.549745    27A1     2.800053    28A1     4.027026  
       7A2     4.027026    15B2     4.027280    15B1     4.027280  
      29A1     4.029477    16B2     4.250737    16B1     4.250737  
      30A1     4.265945  

    Final Occupation by Irrep:
             A1    A2    B1    B2 
    DOCC [     2,    0,    0,    0 ]
    NA   [     2,    0,    0,    0 ]
    NB   [     2,    0,    0,    0 ]

  @RHF Final Energy:    -7.81975711701352

   => Energetics <=

    Nuclear Repulsion Energy =              0.2369450197029851
    One-Electron Energy =                 -10.5102478861856401
    Two-Electron Energy =                   2.4535457494691388
    Total Energy =                         -7.8197571170135163

Computation Completed


Properties will be evaluated at   0.000000,   0.000000,   0.000000 [a0]

Properties computed using the SCF density matrix


 Multipole Moments:

 ------------------------------------------------------------------------------------
     Multipole            Electronic (a.u.)      Nuclear  (a.u.)        Total (a.u.)
 ------------------------------------------------------------------------------------

 L = 1.  Multiply by 2.5417464519 to convert [e a0] to [Debye]
 Dipole X            :          0.0000000            0.0000000            0.0000000
 Dipole Y            :          0.0000000            0.0000000            0.0000000
 Dipole Z            :        -14.1394407            6.2999926           -7.8394480
 Magnitude           :                                                    7.8394480

 ------------------------------------------------------------------------------------

*** tstop() called on Azul at Wed Aug 28 19:00:21 2024
Module time:
	user time   =       1.16 seconds =       0.02 minutes
	system time =       0.13 seconds =       0.00 minutes
	total time  =          1 seconds =       0.02 minutes
Total time:
	user time   =     141.36 seconds =       2.36 minutes
	system time =      66.13 seconds =       1.10 minutes
	total time  =        209 seconds =       3.48 minutes
 MINTS: Wrapper to libmints.
   by Justin Turney

   Calculation information:
      Number of threads:                 1
      Number of atoms:                   2
      Number of AO shells:              23
      Number of SO shells:              23
      Number of primitives:             49
      Number of atomic orbitals:        80
      Number of basis functions:        69

      Number of irreps:                  4
      Integral cutoff                 1.00e-12
      Number of functions per irrep: [  30    7   16   16 ]

 OEINTS: Overlap, kinetic, potential, dipole, and quadrupole integrals
         stored in file 35.

      Computing two-electron integrals...done
      Computed 517457 non-zero two-electron integrals.
        Stored in file 33.


*** tstart() called on Azul
*** at Wed Aug 28 19:00:22 2024


	Wfn Parameters:
	--------------------
	Wavefunction         = CCSD
	Number of irreps     = 4
	Number of MOs        = 69
	Number of active MOs = 69
	AO-Basis             = NONE
	Semicanonical        = false
	Reference            = RHF
	Print Level          = 1

	IRREP	# MOs	# FZDC	# DOCC	# SOCC	# VIRT	# FZVR
	-----	-----	------	------	------	------	------
	 A1	   30	    0	    2	    0	    28	    0
	 A2	   7	    0	    0	    0	    7	    0
	 B1	   16	    0	    0	    0	    16	    0
	 B2	   16	    0	    0	    0	    16	    0
	Transforming integrals...
	IWL integrals will be deleted.
	(OO|OO)...
	Presorting SO-basis two-electron integrals.
	Sorting File: SO Ints (nn|nn) nbuckets = 1
	Constructing frozen core operators
	Starting first half-transformation.
	Sorting half-transformed integrals.
	First half integral transformation complete.
	Starting second half-transformation.
	Two-electron integral transformation complete.
	(OO|OV)...
	Starting second half-transformation.
	Two-electron integral transformation complete.
	(OO|VV)...
	Starting second half-transformation.
	Two-electron integral transformation complete.
	(OV|OO)...
	Starting first half-transformation.
	Sorting half-transformed integrals.
	First half integral transformation complete.
	Starting second half-transformation.
	Two-electron integral transformation complete.
	(OV|OV)...
	Starting second half-transformation.
	Two-electron integral transformation complete.
	(OV|VV)...
	Starting second half-transformation.
	Two-electron integral transformation complete.
	(VV|OO)...
	Starting first half-transformation.
	Sorting half-transformed integrals.
	First half integral transformation complete.
	Starting second half-transformation.
	Two-electron integral transformation complete.
	(VV|OV)...
	Starting second half-transformation.
	Two-electron integral transformation complete.
	(VV|VV)...
	Starting second half-transformation.
	Two-electron integral transformation complete.
	Frozen core energy     =      0.00000000000000

	Size of irrep 0 of <ab|cd> integrals:      1.809 (MW) /     14.472 (MB)
	Size of irrep 1 of <ab|cd> integrals:      0.817 (MW) /      6.538 (MB)
	Size of irrep 2 of <ab|cd> integrals:      1.254 (MW) /     10.035 (MB)
	Size of irrep 3 of <ab|cd> integrals:      1.254 (MW) /     10.035 (MB)
	Total:                                     5.135 (MW) /     41.080 (MB)

	Size of irrep 0 of <ia|bc> integrals:      0.075 (MW) /      0.603 (MB)
	Size of irrep 1 of <ia|bc> integrals:      0.013 (MW) /      0.101 (MB)
	Size of irrep 2 of <ia|bc> integrals:      0.036 (MW) /      0.287 (MB)
	Size of irrep 3 of <ia|bc> integrals:      0.036 (MW) /      0.287 (MB)
	Total:                                     0.160 (MW) /      1.277 (MB)

	Size of irrep 0 of tijab amplitudes:       0.005 (MW) /      0.043 (MB)
	Size of irrep 1 of tijab amplitudes:       0.000 (MW) /      0.000 (MB)
	Size of irrep 2 of tijab amplitudes:       0.000 (MW) /      0.000 (MB)
	Size of irrep 3 of tijab amplitudes:       0.000 (MW) /      0.000 (MB)
	Total:                                     0.005 (MW) /      0.043 (MB)

	Nuclear Rep. energy          =      0.23694501970299
	SCF energy                   =     -7.81975711701352
	One-electron energy          =    -10.51024788637112
	Two-electron energy          =      2.45354574965464
	Reference energy             =     -7.81975711701350

*** tstop() called on Azul at Wed Aug 28 19:00:22 2024
Module time:
	user time   =       0.32 seconds =       0.01 minutes
	system time =       0.21 seconds =       0.00 minutes
	total time  =          0 seconds =       0.00 minutes
Total time:
	user time   =     142.02 seconds =       2.37 minutes
	system time =      66.35 seconds =       1.11 minutes
	total time  =        210 seconds =       3.50 minutes
            **************************
            *                        *
            *        CCENERGY        *
            *                        *
            **************************

    Nuclear Rep. energy (wfn)     =    0.236945019702985
    SCF energy          (wfn)     =   -7.819757117013516
    Reference energy    (file100) =   -7.819757117013501

    Input parameters:
    -----------------
    Wave function   =     CCSD
    Reference wfn   =     RHF
    Brueckner       =     No
    Memory (Mbytes) =     524.3
    Maxiter         =     50
    R_Convergence   =     1.0e-07
    E_Convergence   =     1.0e-08
    Restart         =     Yes
    DIIS            =     Yes
    AO Basis        =     NONE
    ABCD            =     NEW
    Cache Level     =     2
    Cache Type      =     LOW
    Print Level     =     1
    Num. of threads =     1
    # Amps to Print =     10
    Print MP2 Amps? =     No
    Analyze T2 Amps =     No
    Print Pair Ener =     No
    Local CC        =     No
    SCS-MP2         =     False
    SCSN-MP2        =     False
    SCS-CCSD        =     False

    Using old T1 amplitudes.
    Using old T2 amplitudes.

MP2 correlation energy -0.0771488075479083
                Solving CC Amplitude Equations
                ------------------------------
  Iter             Energy              RMS        T1Diag      D1Diag    New D1Diag    D2Diag
  ----     ---------------------    ---------   ----------  ----------  ----------   --------
     0        -0.040790864964913    0.000e+00    0.381032    0.762060    0.762060    1.536135
     1         0.275199551361000    4.488e+00    0.710923    1.421845    1.421845    2.449854
     2         0.228174069396694    5.163e+00    0.097836    0.195660    0.195660    3.850782
     3         0.389030903133441    5.857e+00    1.169468    2.338934    2.338934    1.497408
     4        -0.071126101481280    4.021e+01    0.368299    0.736594    0.736594    1.434681
     5        -0.053448294266515    3.962e+00    0.460653    0.921304    0.921304    1.331073
     6        -0.020897291266920    3.194e+00    0.610873    1.221743    1.221743    1.359418
     7        -0.024993055686432    1.532e+00    0.582276    1.164550    1.164550    1.292326
     8        -0.024515827455727    1.701e+00    0.636530    1.273057    1.273057    1.577071
     9        -0.031604945228630    2.029e+00    0.615396    1.230789    1.230789    1.612560
    10        -0.054088647205711    2.537e+00    0.575021    1.150041    1.150041    1.794936
    11        -0.051883919418184    3.997e+00    0.428861    0.857720    0.857720    1.048735
    12        -0.044877751565904    2.297e+00    0.424109    0.848214    0.848214    0.794431
    13        -0.042782605618874    1.277e+00    0.421497    0.842991    0.842991    0.730876
    14        -0.041005632385328    1.040e+00    0.418350    0.836697    0.836697    0.688151
    15        -0.040210511298376    8.810e-01    0.404724    0.809444    0.809444    0.638150
    16        -0.038682415729650    7.851e-01    0.384265    0.768526    0.768526    0.552768
    17        -0.035696316423539    5.578e-01    0.303372    0.606740    0.606740    0.381214
    18        -0.038957545525973    2.080e-01    0.294168    0.588332    0.588332    0.374588
    19        -0.040280829052354    1.380e-01    0.292884    0.585763    0.585763    0.379407
    20        -0.040931486618476    1.152e-01    0.297584    0.595163    0.595163    0.390571
    21        -0.041519277862092    1.008e-01    0.312904    0.625802    0.625802    0.427218
    22        -0.038846935825692    9.928e-02    0.273222    0.546439    0.546439    0.315338
    23        -0.037178672042361    1.059e-01    0.260991    0.521979    0.521979    0.291147
    24        -0.039523968443015    1.112e-01    0.255262    0.510521    0.510521    0.295424
    25        -0.037708986943015    9.068e-02    0.240863    0.481723    0.481723    0.287145
    26        -0.041795265145078    1.086e-01    0.238192    0.476381    0.476381    0.315816
    27        -0.037516337745830    1.222e-01    0.247504    0.495005    0.495005    0.321023
    28        -0.036619047757449    1.957e-01    0.247821    0.495639    0.495639    0.330518
    29        -0.037182044889677    2.386e-01    0.247362    0.494720    0.494720    0.313544
    30        -0.041473111526043    1.599e-01    0.238533    0.477064    0.477064    0.309798
    31        -0.040683509790560    1.036e-01    0.234511    0.469019    0.469019    0.297446
    32        -0.040954184375410    7.615e-02    0.236059    0.472115    0.472115    0.304119
    33        -0.041205507839949    9.170e-02    0.231459    0.462915    0.462915    0.294020
    34        -0.039701189708745    7.477e-02    0.242815    0.485628    0.485628    0.299963
    35        -0.035172985208015    6.052e-02    0.295627    0.591251    0.591251    0.349249
    36        -0.034487214081574    9.260e-02    0.302411    0.604817    0.604817    0.355360
    37        -0.036505320983080    5.812e-02    0.282382    0.564761    0.564761    0.339781
    38        -0.035058489040873    7.163e-02    0.297905    0.595807    0.595807    0.355317
    39        -0.035265362355848    3.399e-02    0.297076    0.594148    0.594148    0.355504
    40        -0.034261287225555    3.944e-02    0.302465    0.604927    0.604927    0.356199
    41        -0.034859519680561    2.921e-02    0.295090    0.590176    0.590176    0.348024
    42        -0.034005888902119    2.494e-02    0.297752    0.595500    0.595500    0.347761
    43        -0.033889502143290    1.672e-02    0.295863    0.591723    0.591723    0.343338
    44        -0.034178570653108    9.639e-03    0.293332    0.586660    0.586660    0.340864
    45        -0.034242362819913    8.844e-03    0.293522    0.587041    0.587041    0.342971
    46        -0.034368908198386    5.087e-03    0.293393    0.586782    0.586782    0.344677
    47        -0.034510265630199    4.603e-03    0.294645    0.589288    0.589288    0.348982
    48        -0.034442054875146    4.998e-03    0.295564    0.591125    0.591125    0.350409
    49        -0.034327912401171    3.775e-03    0.297527    0.595051    0.595051    0.353532
    50        -0.034268415004493    1.834e-03    0.298534    0.597066    0.597066    0.355039

     ** Wave function not converged to 1.0e-07 ** 

Traceback (most recent call last):
  File "/home/gustavo/psi4conda/bin/psi4", line 387, in <module>
    exec(content)
  File "<string>", line 30, in <module>
  File "/home/gustavo/psi4conda/lib/python3.10/site-packages/psi4/driver/driver.py", line 790, in properties
    wfn = procedures["properties"][lowername](lowername, molecule=molecule, **kwargs)
  File "/home/gustavo/psi4conda/lib/python3.10/site-packages/psi4/driver/procrouting/proc.py", line 3315, in run_cc_property
    ccwfn = run_ccenergy(name, **kwargs)
  File "/home/gustavo/psi4conda/lib/python3.10/site-packages/psi4/driver/procrouting/proc.py", line 2921, in run_ccenergy
    ccwfn = core.ccenergy(ref_wfn)

RuntimeError: 
Fatal Error: Coupled Cluster wave function not converged.
Error occurred in file: /home/conda/feedstock_root/build_artifacts/psi4_1707435938068/work/psi4/src/psi4/cc/ccenergy/ccenergy.cc on line: 324
The most recent 5 function calls were:

psi::PsiException::PsiException(std::__cxx11::basic_string<char, std::char_traits<char>, std::allocator<char> >, char const*, int)



Printing out the relevant lines from the Psithon --> Python processed input file:
        "basis" : "aug-cc-pvtz"
    })
    Rvals = np.arange(0.5, 10.0, 0.1)
    for R in Rvals:
        LiH.R = R
-->     properties('ccsd', properties=['dipole'])

!----------------------------------------------------------------------------------!
!                                                                                  !
! Fatal Error: Coupled Cluster wave function not converged.                        !
! Error occurred in file: /home/conda/feedstock_root/build_artifacts/psi4_17074359 !
!     38068/work/psi4/src/psi4/cc/ccenergy/ccenergy.cc on line: 324                !
! The most recent 5 function calls were:                                           !
! psi::PsiException::PsiException(std::__cxx11::basic_string<char,                 !
!     std::char_traits<char>, std::allocator<char> >, char const*, int)            !
!                                                                                  !
!----------------------------------------------------------------------------------!

    Psi4 stopped on: Wednesday, 28 August 2024 07:00PM
    Psi4 wall time for execution: 0:03:32.38

*** Psi4 encountered an error. Buy a developer more coffee!
*** Resources and help at github.com/psi4/psi4.
